# vtk DataFile Version 2.0
Landlab output
ASCII
DATASET UNSTRUCTURED_GRID

POINTS 7 float
0.5 0.0 0.0
1.5 0.0 0.0
0.0 0.866025 0.0
1.0 0.866025 1.0
2.0 0.866025 0.0
0.5 1.732051 0.0
1.5 1.732051 0.0

CELLS 6 24
3 3 0 1
3 3 2 0
3 4 3 1
3 5 2 3
3 6 3 4
3 6 5 3

CELL_TYPES 6
5
5
5
5
5
5

POINT_DATA 7
SCALARS topographic__elevation float 1
LOOKUP_TABLE default
0.0
0.0
0.0
1.0
0.0
0.0
0.0
SCALARS surface_water__depth float 1
LOOKUP_TABLE default
0.0
1.0
2.0
3.0
4.0
5.0
6.0

